version 2
run General-0-20120210-14:12:23-9592
attr configname General
attr datetime 20120210-14:12:23
attr experiment General
attr inifile D:/omnetpp/omnetpp-4.1/ex2/inet6/examples/adhoc/ieee80211/omnetpp.ini
attr iterationvars ""
attr iterationvars2 $repetition=0
attr measurement ""
attr network Net80211
attr processid 9592
attr repetition 0
attr replication #0
attr resultdir results
attr runnumber 0
attr seedset 0

vector 3  Net80211.host[0].wlan.mac  RadioState  ETV
attr enum  "IDLE=0, RECV=1, SLEEP=3, TRANSMIT=2"
attr enumname  RadioState
vector 2  Net80211.host[0].wlan.mac  State  ETV
attr enum  "BACKOFF=3, DEFER=1, IDLE=0, RECEIVE=8, WAITACK=4, WAITBROADCAST=5, WAITCTS=6, WAITDIFS=2, WAITSIFS=7"
attr enumname  Ieee80211Mac
vector 7  Net80211.host[1].wlan.mac  RadioState  ETV
attr enum  "IDLE=0, RECV=1, SLEEP=3, TRANSMIT=2"
attr enumname  RadioState
vector 6  Net80211.host[1].wlan.mac  State  ETV
attr enum  "BACKOFF=3, DEFER=1, IDLE=0, RECEIVE=8, WAITACK=4, WAITBROADCAST=5, WAITCTS=6, WAITDIFS=2, WAITSIFS=7"
attr enumname  Ieee80211Mac
vector 11  Net80211.host[2].wlan.mac  RadioState  ETV
attr enum  "IDLE=0, RECV=1, SLEEP=3, TRANSMIT=2"
attr enumname  RadioState
vector 10  Net80211.host[2].wlan.mac  State  ETV
attr enum  "BACKOFF=3, DEFER=1, IDLE=0, RECEIVE=8, WAITACK=4, WAITBROADCAST=5, WAITCTS=6, WAITDIFS=2, WAITSIFS=7"
attr enumname  Ieee80211Mac
vector 15  Net80211.host[3].wlan.mac  RadioState  ETV
attr enum  "IDLE=0, RECV=1, SLEEP=3, TRANSMIT=2"
attr enumname  RadioState
vector 14  Net80211.host[3].wlan.mac  State  ETV
attr enum  "BACKOFF=3, DEFER=1, IDLE=0, RECEIVE=8, WAITACK=4, WAITBROADCAST=5, WAITCTS=6, WAITDIFS=2, WAITSIFS=7"
attr enumname  Ieee80211Mac
vector 19  Net80211.host[4].wlan.mac  RadioState  ETV
attr enum  "IDLE=0, RECV=1, SLEEP=3, TRANSMIT=2"
attr enumname  RadioState
vector 18  Net80211.host[4].wlan.mac  State  ETV
attr enum  "BACKOFF=3, DEFER=1, IDLE=0, RECEIVE=8, WAITACK=4, WAITBROADCAST=5, WAITCTS=6, WAITDIFS=2, WAITSIFS=7"
attr enumname  Ieee80211Mac
vector 23  Net80211.host[5].wlan.mac  RadioState  ETV
attr enum  "IDLE=0, RECV=1, SLEEP=3, TRANSMIT=2"
attr enumname  RadioState
vector 22  Net80211.host[5].wlan.mac  State  ETV
attr enum  "BACKOFF=3, DEFER=1, IDLE=0, RECEIVE=8, WAITACK=4, WAITBROADCAST=5, WAITCTS=6, WAITDIFS=2, WAITSIFS=7"
attr enumname  Ieee80211Mac
vector 27  Net80211.host[6].wlan.mac  RadioState  ETV
attr enum  "IDLE=0, RECV=1, SLEEP=3, TRANSMIT=2"
attr enumname  RadioState
vector 26  Net80211.host[6].wlan.mac  State  ETV
attr enum  "BACKOFF=3, DEFER=1, IDLE=0, RECEIVE=8, WAITACK=4, WAITBROADCAST=5, WAITCTS=6, WAITDIFS=2, WAITSIFS=7"
attr enumname  Ieee80211Mac
vector 31  Net80211.host[7].wlan.mac  RadioState  ETV
attr enum  "IDLE=0, RECV=1, SLEEP=3, TRANSMIT=2"
attr enumname  RadioState
vector 30  Net80211.host[7].wlan.mac  State  ETV
attr enum  "BACKOFF=3, DEFER=1, IDLE=0, RECEIVE=8, WAITACK=4, WAITBROADCAST=5, WAITCTS=6, WAITDIFS=2, WAITSIFS=7"
attr enumname  Ieee80211Mac
vector 35  Net80211.host[8].wlan.mac  RadioState  ETV
attr enum  "IDLE=0, RECV=1, SLEEP=3, TRANSMIT=2"
attr enumname  RadioState
vector 34  Net80211.host[8].wlan.mac  State  ETV
attr enum  "BACKOFF=3, DEFER=1, IDLE=0, RECEIVE=8, WAITACK=4, WAITBROADCAST=5, WAITCTS=6, WAITDIFS=2, WAITSIFS=7"
attr enumname  Ieee80211Mac
vector 39  Net80211.host[9].wlan.mac  RadioState  ETV
attr enum  "IDLE=0, RECV=1, SLEEP=3, TRANSMIT=2"
attr enumname  RadioState
vector 38  Net80211.host[9].wlan.mac  State  ETV
attr enum  "BACKOFF=3, DEFER=1, IDLE=0, RECEIVE=8, WAITACK=4, WAITBROADCAST=5, WAITCTS=6, WAITDIFS=2, WAITSIFS=7"
attr enumname  Ieee80211Mac
2	0	0	0
2	0	0	0
2	17	0.04215532486	0
2	17	0.04215532486	0
2	28	0.04264332486	0
2	28	0.04264332486	0
2	29	0.04264332486	0
2	29	0.04264332486	0
2	77	0.101269998264	0
2	77	0.101269998264	0
2	109	0.101757998264	0
2	109	0.101757998264	0
2	110	0.101757998264	0
2	110	0.101757998264	0
2	130	0.110523395521	0
2	130	0.110523395521	0
2	162	0.111011395521	0
2	162	0.111011395521	0
2	163	0.111011395521	0
2	163	0.111011395521	0
2	182	0.117886865513	0
2	182	0.117886865513	0
2	211	0.118374865513	0
2	211	0.118374865513	0
2	212	0.118374865513	0
2	212	0.118374865513	0
2	230	0.144043764114	0
2	230	0.144043764114	0
2	244	0.144531764114	0
2	244	0.144531764114	0
2	245	0.144531764114	0
2	245	0.144531764114	0
2	288	0.194502593969	0
2	288	0.194502593969	0
2	317	0.194990593969	0
2	317	0.194990593969	0
2	318	0.194990593969	0
2	318	0.194990593969	0
2	332	0.243650617939	0
2	332	0.243650617939	2
2	333	0.243700617939	2
2	333	0.243700617939	5
2	334	0.243700617939	5
2	334	0.243700617939	5
2	344	0.244188617939	5
2	344	0.244188617939	0
2	345	0.244188617939	0
2	345	0.244188617939	0
2	398	0.25087386004	0
2	398	0.25087386004	0
2	412	0.25136186004	0
2	412	0.25136186004	0
2	413	0.25136186004	0
2	413	0.25136186004	0
2	451	0.261076491236	0
2	451	0.261076491236	0
2	465	0.261564491236	0
2	465	0.261564491236	0
2	466	0.261564491236	0
2	466	0.261564491236	0
2	506	0.287197005678	0
2	506	0.287197005678	0
2	526	0.287685005678	0
2	526	0.287685005678	0
2	527	0.287685005678	0
2	527	0.287685005678	0
2	576	10.005839929079	0
2	576	10.005839929079	0
2	623	10.006503929079	0
2	623	10.006503929079	0
2	624	10.006503929079	0
2	624	10.006503929079	0
2	654	10.011476390967	0
2	654	10.011476390967	0
2	688	10.012140390967	0
2	688	10.012140390967	0
2	689	10.012140390967	0
2	689	10.012140390967	0
2	748	10.012250330276	0
2	748	10.012250330276	0
2	761	10.012509226611	0
2	761	10.012509226611	1
2	776	10.012914330276	1
2	776	10.012914330276	2
2	777	10.012914330276	2
2	777	10.012914330276	2
2	824	10.012964330276	2
2	824	10.012964330276	3
2	829	10.013124330276	3
2	829	10.013124330276	5
2	830	10.013124330276	5
2	830	10.013124330276	5
2	852	10.013788330276	5
2	852	10.013788330276	0
2	853	10.013788330276	0
2	853	10.013788330276	0
2	923	10.013880198902	0
2	923	10.013880198902	0
2	984	10.014544198902	0
2	984	10.014544198902	0
2	985	10.014544198902	0
2	985	10.014544198902	0
2	1011	10.014894631665	0
2	1011	10.014894631665	0
2	1057	10.015558631665	0
2	1057	10.015558631665	0
2	1058	10.015558631665	0
2	1058	10.015558631665	0
2	1077	10.015668775073	0
2	1077	10.015668775073	0
2	1099	10.016332775073	0
2	1099	10.016332775073	0
2	1100	10.016332775073	0
2	1100	10.016332775073	0
2	1157	10.016463452554	0
2	1157	10.016463452554	0
2	1189	10.017127452554	0
2	1189	10.017127452554	0
2	1190	10.017127452554	0
2	1190	10.017127452554	0
2	1237	10.017199420161	0
2	1237	10.017199420161	0
2	1290	10.017863420161	0
2	1290	10.017863420161	0
2	1291	10.017863420161	0
2	1291	10.017863420161	0
2	1330	10.017951625211	0
2	1330	10.017951625211	0
2	1359	10.018615625211	0
2	1359	10.018615625211	0
2	1360	10.018615625211	0
2	1360	10.018615625211	0
2	1425	10.018746221241	0
2	1425	10.018746221241	0
2	1436	10.018806527634	0
2	1436	10.018806527634	1
2	1459	10.019410221241	1
2	1459	10.019410221241	2
2	1460	10.019410221241	2
2	1460	10.019410221241	2
2	1501	10.019460221241	2
2	1501	10.019460221241	3
2	1514	10.019501416672	3
2	1514	10.019501416672	1
2	1555	10.020165416672	1
2	1555	10.020165416672	2
2	1556	10.020165416672	2
2	1556	10.020165416672	2
2	1577	10.020215416672	2
2	1577	10.020215416672	3
2	1581	10.020295419169	3
2	1581	10.020295419169	1
2	1592	10.020959419169	1
2	1592	10.020959419169	2
2	1593	10.020959419169	2
2	1593	10.020959419169	2
2	1647	10.021009419169	2
2	1647	10.021009419169	3
2	1655	10.021150587355	3
2	1655	10.021150587355	1
2	1678	10.021814587355	1
2	1678	10.021814587355	2
2	1679	10.021814587355	2
2	1679	10.021814587355	2
2	1733	10.021864587355	2
2	1733	10.021864587355	3
2	1747	10.022046450712	3
2	1747	10.022046450712	1
2	1793	10.022710450712	1
2	1793	10.022710450712	2
2	1794	10.022710450712	2
2	1794	10.022710450712	2
2	1818	10.022760450712	2
2	1818	10.022760450712	3
2	1828	10.022920542221	3
2	1828	10.022920542221	1
2	1886	10.023584542221	1
2	1886	10.023584542221	2
2	1887	10.023584542221	2
2	1887	10.023584542221	2
2	1904	10.023634542221	2
2	1904	10.023634542221	3
2	1907	10.023814542221	3
2	1907	10.023814542221	5
2	1908	10.023814542221	5
2	1908	10.023814542221	5
2	1930	10.024478542221	5
2	1930	10.024478542221	0
2	1931	10.024478542221	0
2	1931	10.024478542221	0
2	1932	10.024478542396	0
2	1932	10.024478542396	0
2	1964	10.025907001005	0
2	1964	10.025907001005	0
2	1987	10.026571001005	0
2	1987	10.026571001005	0
2	1988	10.026571001005	0
2	1988	10.026571001005	0
2	2053	10.026623508291	0
2	2053	10.026623508291	0
2	2061	10.026971735671	0
2	2061	10.026971735671	1
2	2106	10.027287508291	1
2	2106	10.027287508291	2
2	2107	10.027287508291	2
2	2107	10.027287508291	2
2	2137	10.027337508291	2
2	2137	10.027337508291	3
2	2138	10.027337514398	3
2	2138	10.027337514398	1
2	2196	10.028001514398	1
2	2196	10.028001514398	2
2	2197	10.028001514398	2
2	2197	10.028001514398	2
2	2219	10.028051514398	2
2	2219	10.028051514398	3
2	2230	10.028211873246	3
2	2230	10.028211873246	1
2	2282	10.028875873246	1
2	2282	10.028875873246	2
2	2283	10.028875873246	2
2	2283	10.028875873246	2
2	2298	10.028925873246	2
2	2298	10.028925873246	3
2	2299	10.028965873246	3
2	2299	10.028965873246	5
2	2300	10.028965873246	5
2	2300	10.028965873246	5
2	2310	10.029629873246	5
2	2310	10.029629873246	0
2	2311	10.029629873246	0
2	2311	10.029629873246	0
2	2385	10.029861741872	0
2	2385	10.029861741872	0
2	2453	10.030525741872	0
2	2453	10.030525741872	0
2	2454	10.030525741872	0
2	2454	10.030525741872	0
2	2472	10.030676056614	0
2	2472	10.030676056614	0
2	2488	10.031340056614	0
2	2488	10.031340056614	0
2	2489	10.031340056614	0
2	2489	10.031340056614	0
2	2547	10.031510652644	0
2	2547	10.031510652644	0
2	2576	10.032174652644	0
2	2576	10.032174652644	0
2	2577	10.032174652644	0
2	2577	10.032174652644	0
2	2633	10.033362290395	0
2	2633	10.033362290395	0
2	2680	10.034026290395	0
2	2680	10.034026290395	0
2	2681	10.034026290395	0
2	2681	10.034026290395	0
2	2711	10.035420839474	0
2	2711	10.035420839474	0
2	2728	10.036084839474	0
2	2728	10.036084839474	0
2	2729	10.036084839474	0
2	2729	10.036084839474	0
2	2797	10.038861313209	0
2	2797	10.038861313209	0
2	2843	10.039525313209	0
2	2843	10.039525313209	0
2	2844	10.039525313209	0
2	2844	10.039525313209	0
2	2879	10.041040128032	0
2	2879	10.041040128032	0
2	2931	10.041704128032	0
2	2931	10.041704128032	0
2	2932	10.041704128032	0
2	2932	10.041704128032	0
2	2950	10.04196603943	0
2	2950	10.04196603943	2
2	2951	10.04201603943	2
2	2951	10.04201603943	5
2	2952	10.04201603943	5
2	2952	10.04201603943	5
2	2962	10.04268003943	5
2	2962	10.04268003943	0
2	2963	10.04268003943	0
2	2963	10.04268003943	0
2	3037	10.042777658796	0
2	3037	10.042777658796	0
2	3066	10.043441658796	0
2	3066	10.043441658796	0
2	3067	10.043441658796	0
2	3067	10.043441658796	0
2	3122	10.044326467047	0
2	3122	10.044326467047	0
2	3174	10.044990467047	0
2	3174	10.044990467047	0
2	3175	10.044990467047	0
2	3175	10.044990467047	0
2	3197	10.050525807063	0
2	3197	10.050525807063	0
2	3214	10.051189807063	0
2	3214	10.051189807063	0
2	3215	10.051189807063	0
2	3215	10.051189807063	0
2	3278	10.05636910101	0
2	3278	10.05636910101	0
2	3295	10.05703310101	0
2	3295	10.05703310101	0
2	3296	10.05703310101	0
2	3296	10.05703310101	0
2	3365	10.057525774214	0
2	3365	10.057525774214	0
2	3412	10.058189774214	0
2	3412	10.058189774214	0
2	3413	10.058189774214	0
2	3413	10.058189774214	0
2	3442	10.06161131625	0
2	3442	10.06161131625	0
2	3471	10.06227531625	0
2	3471	10.06227531625	0
2	3472	10.06227531625	0
2	3472	10.06227531625	0
2	3531	10.062445917718	0
2	3531	10.062445917718	0
2	3557	10.063109917718	0
2	3557	10.063109917718	0
2	3558	10.063109917718	0
2	3558	10.063109917718	0
2	3621	10.063641708415	0
2	3621	10.063641708415	0
2	3667	10.064305708415	0
2	3667	10.064305708415	0
2	3668	10.064305708415	0
2	3668	10.064305708415	0
2	3703	10.069311544129	0
2	3703	10.069311544129	0
2	3755	10.069975544129	0
2	3755	10.069975544129	0
2	3756	10.069975544129	0
2	3756	10.069975544129	0
2	3780	10.070653466438	0
2	3780	10.070653466438	0
2	3791	10.071098313346	0
2	3791	10.071098313346	1
2	3815	10.071317466438	1
2	3815	10.071317466438	2
2	3816	10.071317466438	2
2	3816	10.071317466438	2
2	3856	10.071367466438	2
2	3856	10.071367466438	3
2	3857	10.071727466438	3
2	3857	10.071727466438	5
2	3858	10.071727466438	5
2	3858	10.071727466438	5
2	3868	10.072391466438	5
2	3868	10.072391466438	0
2	3869	10.072391466438	0
2	3869	10.072391466438	0
2	3941	10.075239261089	0
2	3941	10.075239261089	0
2	3964	10.075903261089	0
2	3964	10.075903261089	0
2	3965	10.075903261089	0
2	3965	10.075903261089	0
2	4029	10.075975274065	0
2	4029	10.075975274065	0
2	4081	10.076639274065	0
2	4081	10.076639274065	0
2	4082	10.076639274065	0
2	4082	10.076639274065	0
2	4103	10.078913966517	0
2	4103	10.078913966517	0
2	4114	10.079577966517	0
2	4114	10.079577966517	0
2	4115	10.079577966517	0
2	4115	10.079577966517	0
2	4185	10.083622828013	0
2	4185	10.083622828013	0
2	4202	10.084286828013	0
2	4202	10.084286828013	0
2	4203	10.084286828013	0
2	4203	10.084286828013	0
2	4266	10.090869826902	0
2	4266	10.090869826902	0
2	4283	10.091533826902	0
2	4283	10.091533826902	0
2	4284	10.091533826902	0
2	4284	10.091533826902	0
2	4353	10.098796427884	0
2	4353	10.098796427884	0
2	4400	10.099460427884	0
2	4400	10.099460427884	0
2	4401	10.099460427884	0
2	4401	10.099460427884	0
2	4430	10.115188491819	0
2	4430	10.115188491819	0
2	4447	10.115852491819	0
2	4447	10.115852491819	0
2	4448	10.115852491819	0
2	4448	10.115852491819	0
2	4513	10.117111760248	0
2	4513	10.117111760248	0
2	4542	10.117775760248	0
2	4542	10.117775760248	0
2	4543	10.117775760248	0
2	4543	10.117775760248	0
2	4592	10.121848306152	0
2	4592	10.121848306152	0
2	4603	10.122512306152	0
2	4603	10.122512306152	0
2	4604	10.122512306152	0
2	4604	10.122512306152	0
2	4685	10.133480911156	0
2	4685	10.133480911156	0
2	4702	10.134144911156	0
2	4702	10.134144911156	0
2	4703	10.134144911156	0
2	4703	10.134144911156	0
2	4772	10.135868690168	0
2	4772	10.135868690168	0
2	4824	10.136532690168	0
2	4824	10.136532690168	0
2	4825	10.136532690168	0
2	4825	10.136532690168	0
2	4847	10.141338314798	0
2	4847	10.141338314798	0
2	4864	10.142002314798	0
2	4864	10.142002314798	0
2	4865	10.142002314798	0
2	4865	10.142002314798	0
2	4933	10.146351562052	0
2	4933	10.146351562052	0
2	4979	10.147015562052	0
2	4979	10.147015562052	0
2	4980	10.147015562052	0
2	4980	10.147015562052	0
2	5014	10.153083865598	0
2	5014	10.153083865598	0
2	5061	10.153747865598	0
2	5061	10.153747865598	0
2	5062	10.153747865598	0
2	5062	10.153747865598	0
2	5091	10.161940710333	0
2	5091	10.161940710333	0
2	5108	10.162604710333	0
2	5108	10.162604710333	0
2	5109	10.162604710333	0
2	5109	10.162604710333	0
2	5171	10.171857366125	0
2	5171	10.171857366125	0
2	5182	10.172521366125	0
2	5182	10.172521366125	0
2	5183	10.172521366125	0
2	5183	10.172521366125	0
2	5255	10.17862689561	0
2	5255	10.17862689561	0
2	5290	10.17929089561	0
2	5290	10.17929089561	0
2	5291	10.17929089561	0
2	5291	10.17929089561	0
2	5341	10.179421863203	0
2	5341	10.179421863203	0
2	5393	10.180085863203	0
2	5393	10.180085863203	0
2	5394	10.180085863203	0
2	5394	10.180085863203	0
2	5412	10.186940428881	0
2	5412	10.186940428881	2
2	5413	10.186990428881	2
2	5413	10.186990428881	5
2	5414	10.186990428881	5
2	5414	10.186990428881	5
2	5424	10.187654428881	5
2	5424	10.187654428881	0
2	5425	10.187654428881	0
2	5425	10.187654428881	0
2	5497	10.21331443133	0
2	5497	10.21331443133	0
2	5514	10.21397843133	0
2	5514	10.21397843133	0
2	5515	10.21397843133	0
2	5515	10.21397843133	0
2	5584	10.220384870757	0
2	5584	10.220384870757	0
2	5636	10.221048870757	0
2	5636	10.221048870757	0
2	5637	10.221048870757	0
2	5637	10.221048870757	0
2	5664	10.233039949863	0
2	5664	10.233039949863	0
2	5710	10.233703949863	0
2	5710	10.233703949863	0
2	5711	10.233703949863	0
2	5711	10.233703949863	0
2	5740	10.242620945003	0
2	5740	10.242620945003	0
2	5757	10.243284945003	0
2	5757	10.243284945003	0
2	5758	10.243284945003	0
2	5758	10.243284945003	0
2	5819	10.25234674157	0
2	5819	10.25234674157	2
2	5820	10.25239674157	2
2	5820	10.25239674157	5
2	5821	10.25239674157	5
2	5821	10.25239674157	5
2	5831	10.25306074157	5
2	5831	10.25306074157	0
2	5832	10.25306074157	0
2	5832	10.25306074157	0
2	5919	10.25868650613	0
2	5919	10.25868650613	0
2	5971	10.25935050613	0
2	5971	10.25935050613	0
2	5972	10.25935050613	0
2	5972	10.25935050613	0
2	5996	10.267103061947	0
2	5996	10.267103061947	0
2	6025	10.267767061947	0
2	6025	10.267767061947	0
2	6026	10.267767061947	0
2	6026	10.267767061947	0
2	6080	10.269119312733	0
2	6080	10.269119312733	0
2	6127	10.269783312733	0
2	6127	10.269783312733	0
2	6128	10.269783312733	0
2	6128	10.269783312733	0
2	6158	10.303258340781	0
2	6158	10.303258340781	0
2	6175	10.303922340781	0
2	6175	10.303922340781	0
2	6176	10.303922340781	0
2	6176	10.303922340781	0
2	6241	10.320853034732	0
2	6241	10.320853034732	2
2	6245	10.320871052708	2
2	6245	10.320871052708	1
2	6262	10.321535052708	1
2	6262	10.321535052708	2
2	6263	10.321535052708	2
2	6263	10.321535052708	2
2	6317	10.321585052708	2
2	6317	10.321585052708	3
2	6318	10.321745052708	3
2	6318	10.321745052708	5
2	6319	10.321745052708	5
2	6319	10.321745052708	5
2	6329	10.322409052708	5
2	6329	10.322409052708	0
2	6330	10.322409052708	0
2	6330	10.322409052708	0
2	6408	10.328040483806	0
2	6408	10.328040483806	0
2	6460	10.328704483806	0
2	6460	10.328704483806	0
2	6461	10.328704483806	0
2	6461	10.328704483806	0
2	6483	10.330566453854	0
2	6483	10.330566453854	0
2	6500	10.331230453854	0
2	6500	10.331230453854	0
2	6501	10.331230453854	0
2	6501	10.331230453854	0
2	6565	10.431435410206	0
2	6565	10.431435410206	0
2	6582	10.432099410206	0
2	6582	10.432099410206	0
2	6583	10.432099410206	0
2	6583	10.432099410206	0
2	6645	10.481317726949	0
2	6645	10.481317726949	0
2	6656	10.481981726949	0
2	6656	10.481981726949	0
2	6657	10.481981726949	0
2	6657	10.481981726949	0
2	6733	10.483874659456	0
2	6733	10.483874659456	0
2	6785	10.484538659456	0
2	6785	10.484538659456	0
2	6786	10.484538659456	0
2	6786	10.484538659456	0
2	6813	10.489230692445	0
2	6813	10.489230692445	0
2	6860	10.489894692445	0
2	6860	10.489894692445	0
2	6861	10.489894692445	0
2	6861	10.489894692445	0
2	6886	10.497075916913	0
2	6886	10.497075916913	2
2	6887	10.497125916913	2
2	6887	10.497125916913	5
2	6888	10.497125916913	5
2	6888	10.497125916913	5
2	6898	10.497789916913	5
2	6898	10.497789916913	0
2	6899	10.497789916913	0
2	6899	10.497789916913	0
2	6971	10.50062228861	0
2	6971	10.50062228861	0
2	6988	10.50128628861	0
2	6988	10.50128628861	0
2	6989	10.50128628861	0
2	6989	10.50128628861	0
2	7068	10.555273987574	0
2	7068	10.555273987574	0
2	7114	10.555937987574	0
2	7114	10.555937987574	0
2	7115	10.555937987574	0
2	7115	10.555937987574	0
2	7150	10.55614792389	0
2	7150	10.55614792389	0
2	7202	10.55681192389	0
2	7202	10.55681192389	0
2	7203	10.55681192389	0
2	7203	10.55681192389	0
2	7225	10.577934288273	0
2	7225	10.577934288273	0
2	7242	10.578598288273	0
2	7242	10.578598288273	0
2	7243	10.578598288273	0
2	7243	10.578598288273	0
2	7305	10.61973330737	0
2	7305	10.61973330737	0
2	7316	10.62039730737	0
2	7316	10.62039730737	0
2	7317	10.62039730737	0
2	7317	10.62039730737	0
2	7393	10.638531076229	0
2	7393	10.638531076229	0
2	7445	10.639195076229	0
2	7445	10.639195076229	0
2	7446	10.639195076229	0
2	7446	10.639195076229	0
2	7468	10.648673935021	0
2	7468	10.648673935021	0
2	7485	10.649337935021	0
2	7485	10.649337935021	0
2	7486	10.649337935021	0
2	7486	10.649337935021	0
2	7552	10.668343453319	0
2	7552	10.668343453319	0
2	7581	10.669007453319	0
2	7581	10.669007453319	0
2	7582	10.669007453319	0
2	7582	10.669007453319	0
2	7636	10.688219925849	0
2	7636	10.688219925849	0
2	7683	10.688883925849	0
2	7683	10.688883925849	0
2	7684	10.688883925849	0
2	7684	10.688883925849	0
2	7709	10.729695323553	0
2	7709	10.729695323553	2
2	7710	10.729745323553	2
2	7710	10.729745323553	5
2	7711	10.729745323553	5
2	7711	10.729745323553	5
2	7721	10.730409323553	5
2	7721	10.730409323553	0
2	7722	10.730409323553	0
2	7722	10.730409323553	0
2	7800	10.948511081281	0
2	7800	10.948511081281	0
2	7852	10.949175081281	0
2	7852	10.949175081281	0
2	7853	10.949175081281	0
2	7853	10.949175081281	0
2	7875	10.967278235743	0
2	7875	10.967278235743	0
2	7892	10.967942235743	0
2	7892	10.967942235743	0
2	7893	10.967942235743	0
2	7893	10.967942235743	0
2	7956	11.000254382916	0
2	7956	11.000254382916	0
2	7967	11.000918382916	0
2	7967	11.000918382916	0
2	7968	11.000918382916	0
2	7968	11.000918382916	0
2	8043	11.005150812058	0
2	8043	11.005150812058	0
2	8090	11.005814812058	0
2	8090	11.005814812058	0
2	8091	11.005814812058	0
2	8091	11.005814812058	0
2	8136	11.073033294654	0
2	8136	11.073033294654	0
2	8188	11.073697294654	0
2	8188	11.073697294654	0
2	8189	11.073697294654	0
2	8189	11.073697294654	0
2	8213	11.09261709562	0
2	8213	11.09261709562	0
2	8242	11.09328109562	0
2	8242	11.09328109562	0
2	8243	11.09328109562	0
2	8243	11.09328109562	0
2	8292	11.135039820099	0
2	8292	11.135039820099	0
2	8309	11.135703820099	0
2	8309	11.135703820099	0
2	8310	11.135703820099	0
2	8310	11.135703820099	0
2	8370	11.194048638965	0
2	8370	11.194048638965	2
2	8371	11.194098638965	2
2	8371	11.194098638965	5
2	8372	11.194098638965	5
2	8372	11.194098638965	5
2	8382	11.194762638965	5
2	8382	11.194762638965	0
2	8383	11.194762638965	0
2	8383	11.194762638965	0
2	8460	11.263394585055	0
2	8460	11.263394585055	0
2	8506	11.264058585055	0
2	8506	11.264058585055	0
2	8507	11.264058585055	0
2	8507	11.264058585055	0
2	8535	11.273965143747	0
2	8535	11.273965143747	0
2	8546	11.274629143747	0
2	8546	11.274629143747	0
2	8547	11.274629143747	0
2	8547	11.274629143747	0
2	8623	11.407904733422	0
2	8623	11.407904733422	0
2	8675	11.408568733422	0
2	8675	11.408568733422	0
2	8676	11.408568733422	0
2	8676	11.408568733422	0
2	8698	11.441801382014	0
2	8698	11.441801382014	0
2	8715	11.442465382014	0
2	8715	11.442465382014	0
2	8716	11.442465382014	0
2	8716	11.442465382014	0
2	8784	11.473334083942	0
2	8784	11.473334083942	0
2	8831	11.473998083942	0
2	8831	11.473998083942	0
2	8832	11.473998083942	0
2	8832	11.473998083942	0
2	8863	11.625460746914	0
2	8863	11.625460746914	0
2	8892	11.626124746914	0
2	8892	11.626124746914	0
2	8893	11.626124746914	0
2	8893	11.626124746914	0
2	8942	11.684056335572	0
2	8942	11.684056335572	0
2	8959	11.684720335572	0
2	8959	11.684720335572	0
2	8960	11.684720335572	0
2	8960	11.684720335572	0
2	9023	11.913321507597	0
2	9023	11.913321507597	0
2	9040	11.913985507597	0
2	9040	11.913985507597	0
2	9041	11.913985507597	0
2	9041	11.913985507597	0
2	9100	11.956651458884	0
2	9100	11.956651458884	2
2	9101	11.956701458884	2
2	9101	11.956701458884	5
2	9102	11.956701458884	5
2	9102	11.956701458884	5
2	9112	11.957365458884	5
2	9112	11.957365458884	0
2	9113	11.957365458884	0
2	9113	11.957365458884	0
2	9184	11.965161481923	0
2	9184	11.965161481923	0
2	9195	11.965825481923	0
2	9195	11.965825481923	0
2	9196	11.965825481923	0
2	9196	11.965825481923	0
2	9283	12.056500271322	0
2	9283	12.056500271322	0
2	9335	12.057164271322	0
2	9335	12.057164271322	0
2	9336	12.057164271322	0
2	9336	12.057164271322	0
2	9361	12.232640317112	0
2	9361	12.232640317112	0
2	9390	12.233304317112	0
2	9390	12.233304317112	0
2	9391	12.233304317112	0
2	9391	12.233304317112	0
2	9445	12.266961991575	0
2	9445	12.266961991575	0
2	9492	12.267625991575	0
2	9492	12.267625991575	0
2	9493	12.267625991575	0
2	9493	12.267625991575	0
2	9522	12.320791578177	0
2	9522	12.320791578177	0
2	9539	12.321455578177	0
2	9539	12.321455578177	0
2	9540	12.321455578177	0
2	9540	12.321455578177	0
2	9603	12.694038354462	0
2	9603	12.694038354462	0
2	9614	12.694702354462	0
2	9614	12.694702354462	0
2	9615	12.694702354462	0
2	9615	12.694702354462	0
2	9685	12.811830875897	0
2	9685	12.811830875897	0
2	9702	12.812494875897	0
2	9702	12.812494875897	0
2	9703	12.812494875897	0
2	9703	12.812494875897	0
2	9762	12.882049747133	0
2	9762	12.882049747133	2
2	9763	12.882099747133	2
2	9763	12.882099747133	5
2	9764	12.882099747133	5
2	9764	12.882099747133	5
2	9774	12.882763747133	5
2	9774	12.882763747133	0
2	9775	12.882763747133	0
2	9775	12.882763747133	0
2	9853	13.028235402798	0
2	9853	13.028235402798	0
2	9905	13.028899402798	0
2	9905	13.028899402798	0
2	9906	13.028899402798	0
2	9906	13.028899402798	0
2	9928	13.36995845187	0
2	9928	13.36995845187	0
2	9945	13.37062245187	0
2	9945	13.37062245187	0
2	9946	13.37062245187	0
2	9946	13.37062245187	0
2	10011	13.460325527578	0
2	10011	13.460325527578	0
2	10040	13.460989527578	0
2	10040	13.460989527578	0
2	10041	13.460989527578	0
2	10041	13.460989527578	0
2	10090	13.461328224726	0
2	10090	13.461328224726	0
2	10107	13.461992224726	0
2	10107	13.461992224726	0
2	10108	13.461992224726	0
2	10108	13.461992224726	0
2	10169	14.044851341151	0
2	10169	14.044851341151	2
2	10170	14.044901341151	2
2	10170	14.044901341151	5
2	10171	14.044901341151	5
2	10171	14.044901341151	5
2	10181	14.045565341151	5
2	10181	14.045565341151	0
2	10182	14.045565341151	0
2	10182	14.045565341151	0
2	10255	14.088525821947	0
2	10255	14.088525821947	0
2	10272	14.089189821947	0
2	10272	14.089189821947	0
2	10273	14.089189821947	0
2	10273	14.089189821947	0
2	10350	14.256739849355	0
2	10350	14.256739849355	0
2	10397	14.257403849355	0
2	10397	14.257403849355	0
2	10398	14.257403849355	0
2	10398	14.257403849355	0
2	10427	14.413888020637	0
2	10427	14.413888020637	0
2	10444	14.414552020637	0
2	10444	14.414552020637	0
2	10445	14.414552020637	0
2	10445	14.414552020637	0
2	10509	14.637268251962	0
2	10509	14.637268251962	0
2	10526	14.637932251962	0
2	10526	14.637932251962	0
2	10527	14.637932251962	0
2	10527	14.637932251962	0
2	10596	14.788472043728	0
2	10596	14.788472043728	0
2	10648	14.789136043728	0
2	10648	14.789136043728	0
2	10649	14.789136043728	0
2	10649	14.789136043728	0
2	10667	15.165821307801	0
2	10667	15.165821307801	2
2	10668	15.165871307801	2
2	10668	15.165871307801	5
2	10669	15.165871307801	5
2	10669	15.165871307801	5
2	10679	15.166535307801	5
2	10679	15.166535307801	0
2	10680	15.166535307801	0
2	10680	15.166535307801	0
2	10754	15.276552390008	0
2	10754	15.276552390008	0
2	10783	15.277216390008	0
2	10783	15.277216390008	0
2	10784	15.277216390008	0
2	10784	15.277216390008	0
2	10838	15.336737996022	0
2	10838	15.336737996022	0
2	10884	15.337401996022	0
2	10884	15.337401996022	0
2	10885	15.337401996022	0
2	10885	15.337401996022	0
2	10914	15.523854526304	0
2	10914	15.523854526304	0
2	10931	15.524518526304	0
2	10931	15.524518526304	0
2	10932	15.524518526304	0
2	10932	15.524518526304	0
2	10996	17.317008302333	0
2	10996	17.317008302333	0
2	11013	17.317672302333	0
2	11013	17.317672302333	0
2	11014	17.317672302333	0
2	11014	17.317672302333	0
2	11083	18.106341777061	0
2	11083	18.106341777061	0
2	11135	18.107005777061	0
2	11135	18.107005777061	0
2	11136	18.107005777061	0
2	11136	18.107005777061	0
2	11158	18.132346139215	0
2	11158	18.132346139215	0
2	11175	18.133010139215	0
2	11175	18.133010139215	0
2	11176	18.133010139215	0
2	11176	18.133010139215	0
2	11254	18.312619115617	0
2	11254	18.312619115617	0
2	11301	18.313283115617	0
2	11301	18.313283115617	0
2	11302	18.313283115617	0
2	11302	18.313283115617	0
2	11332	18.449806543416	0
2	11332	18.449806543416	0
2	11349	18.450470543416	0
2	11349	18.450470543416	0
2	11350	18.450470543416	0
2	11350	18.450470543416	0
2	11419	18.500965313911	0
2	11419	18.500965313911	0
2	11471	18.501629313911	0
2	11471	18.501629313911	0
2	11472	18.501629313911	0
2	11472	18.501629313911	0
2	11496	18.747355549721	0
2	11496	18.747355549721	0
2	11525	18.748019549721	0
2	11525	18.748019549721	0
2	11526	18.748019549721	0
2	11526	18.748019549721	0
2	11580	18.772275118748	0
2	11580	18.772275118748	0
2	11626	18.772939118748	0
2	11626	18.772939118748	0
2	11627	18.772939118748	0
2	11627	18.772939118748	0
2	11657	20.352742850087	0
2	11657	20.352742850087	0
2	11674	20.353406850087	0
2	11674	20.353406850087	0
2	11675	20.353406850087	0
2	11675	20.353406850087	0
2	11744	20.97446037123	0
2	11744	20.97446037123	0
2	11796	20.97512437123	0
2	11796	20.97512437123	0
2	11797	20.97512437123	0
2	11797	20.97512437123	0
2	11819	21.146457153441	0
2	11819	21.146457153441	0
2	11836	21.147121153441	0
2	11836	21.147121153441	0
2	11837	21.147121153441	0
2	11837	21.147121153441	0
2	11902	22.9670251483	0
2	11902	22.9670251483	0
2	11931	22.9676891483	0
2	11931	22.9676891483	0
2	11932	22.9676891483	0
2	11932	22.9676891483	0
2	11986	23.122762903133	0
2	11986	23.122762903133	0
2	12032	23.123426903133	0
2	12032	23.123426903133	0
2	12033	23.123426903133	0
2	12033	23.123426903133	0
2	12062	23.721984043187	0
2	12062	23.721984043187	0
2	12079	23.722648043187	0
2	12079	23.722648043187	0
2	12080	23.722648043187	0
2	12080	23.722648043187	0
2	12148	23.866341069962	0
2	12148	23.866341069962	0
2	12195	23.867005069962	0
2	12195	23.867005069962	0
2	12196	23.867005069962	0
2	12196	23.867005069962	0
2	12231	24.469450156211	0
2	12231	24.469450156211	0
2	12283	24.470114156211	0
2	12283	24.470114156211	0
2	12284	24.470114156211	0
2	12284	24.470114156211	0
2	12302	24.607452202937	0
2	12302	24.607452202937	2
2	12303	24.607502202937	2
2	12303	24.607502202937	5
2	12304	24.607502202937	5
2	12304	24.607502202937	5
2	12314	24.608166202937	5
2	12314	24.608166202937	0
2	12315	24.608166202937	0
2	12315	24.608166202937	0
2	12393	25.890438132498	0
2	12393	25.890438132498	0
2	12445	25.891102132498	0
2	12445	25.891102132498	0
2	12446	25.891102132498	0
2	12446	25.891102132498	0
2	12468	26.210987359783	0
2	12468	26.210987359783	0
2	12485	26.211651359783	0
2	12485	26.211651359783	0
2	12486	26.211651359783	0
2	12486	26.211651359783	0
3	0	0	0
3	0	0	0
3	17	0.04215532486	0
3	17	0.04215532486	1
3	28	0.04264332486	1
3	28	0.04264332486	0
3	77	0.101269998264	0
3	77	0.101269998264	1
3	109	0.101757998264	1
3	109	0.101757998264	0
3	130	0.110523395521	0
3	130	0.110523395521	1
3	162	0.111011395521	1
3	162	0.111011395521	0
3	182	0.117886865513	0
3	182	0.117886865513	1
3	211	0.118374865513	1
3	211	0.118374865513	0
3	230	0.144043764114	0
3	230	0.144043764114	1
3	244	0.144531764114	1
3	244	0.144531764114	0
3	288	0.194502593969	0
3	288	0.194502593969	1
3	317	0.194990593969	1
3	317	0.194990593969	0
3	334	0.243700617939	0
3	334	0.243700617939	2
3	345	0.244188617939	2
3	345	0.244188617939	0
3	398	0.25087386004	0
3	398	0.25087386004	1